 Gaussian 16, Revision C.01,
 Gaussian 16:  ES64L-G16RevC.01  3-Jul-2019

 ----------------------------------------------------------------------
 #p opt=(calcall,tight,maxstep=7,maxcycles=100) freq b3lyp def2tzvpp po
 p=cm5
 ----------------------------------------------------------------------

 -------------------
 Title Card Required
 -------------------
 Symbolic Z-matrix:
 Charge =  0 Multiplicity = 1

 SCF Done:  E(RB3LYP) =  -363.957842504     A.U. after   14 cycles
 SCF Done:  E(RB3LYP) =  -363.958762287     A.U. after   10 cycles
 SCF Done:  E(RB3LYP) =  -363.958763614     A.U. after    7 cycles
 SCF Done:  E(RB3LYP) =  -363.958763619     A.U. after    5 cycles
 Optimization completed.
    -- Stationary point found.
 Normal termination of Gaussian 16 at Mon Sep 26 12:01:53 2022.

 ---------------------------------------------------------------------
 #P Geom=AllCheck Guess=TCheck SCRF=Check GenChk RB3LYP/def2TZVPP Freq
 ---------------------------------------------------------------------

 Structure from the checkpoint file:  "indole_qm.chk"
 -------------------
 Title Card Required
 -------------------
 Charge =  0 Multiplicity = 1

                         Standard orientation:
 ---------------------------------------------------------------------
 Center     Atomic      Atomic             Coordinates (Angstroms)
 Number     Number       Type             X           Y           Z
 ---------------------------------------------------------------------
      1          1           0       -1.009678    2.505918    0.000000
      2          1           0       -0.917442   -2.495850   -0.000000
      3          1           0       -3.061911   -1.262585    0.000000
      4          1           0        3.453103   -0.082375    0.000001
      5          1           0        1.993211    2.173241    0.000000
      6          6           0        1.620452    1.163136   -0.000000
      7          6           0        2.382298    0.030455    0.000000
      8          6           0        0.248141    0.748383   -0.000000
      9          7           0        1.561960   -1.077509    0.000000
     10          6           0        0.247036   -0.670141   -0.000000
     11          6           0       -0.979705    1.423874   -0.000000
     12          6           0       -0.932234   -1.413394   -0.000000
     13          6           0       -2.151544    0.689333    0.000000
     14          6           0       -2.128209   -0.716107    0.000000
     15          1           0       -3.104873    1.200941    0.000001
     16          1           0        1.876463   -2.029966    0.000000
 ---------------------------------------------------------------------

 SCF Done:  E(RB3LYP) =  -363.958763619     A.U. after    1 cycles

 The electronic state is 1-A.
 Alpha  occ. eigenvalues --  -14.36128 -10.20583 -10.20431 -10.17322 -10.17031
 Alpha  occ. eigenvalues --  -10.16822 -10.16757 -10.16276 -10.16124  -0.98359
 Alpha  occ. eigenvalues --   -0.84152  -0.78462  -0.73730  -0.71919  -0.62667
 Alpha  occ. eigenvalues --   -0.59713  -0.58452  -0.54286  -0.48550  -0.47387
 Alpha  occ. eigenvalues --   -0.44127  -0.43222  -0.42714  -0.41519  -0.39523
 Alpha  occ. eigenvalues --   -0.35892  -0.33956  -0.33871  -0.28408  -0.22834
 Alpha  occ. eigenvalues --   -0.21188
 Alpha virt. eigenvalues --   -0.01963   0.01665   0.02796   0.05124   0.05888
 Alpha virt. eigenvalues --    0.07260   0.08509   0.09361   0.11290   0.11594
 Alpha virt. eigenvalues --    0.12144   0.15704   0.16674   0.17715   0.18615

 Mulliken charges:
               1
     1  H    0.115185
     2  H    0.106675
     3  H    0.117453
     4  H    0.145629
     5  H    0.129762
     6  C   -0.226688
     7  C   -0.028348
     8  C    0.038944
     9  N   -0.166990
    10  C    0.073710
    11  C   -0.151485
    12  C   -0.172287
    13  C   -0.129468
    14  C   -0.118559
    15  H    0.116071
    16  H    0.150397
 Sum of Mulliken charges =  -0.00000

 Dipole moment (field-independent basis, Debye):
    X=              1.5210    Y=             -1.5342    Z=              0.0000  Tot=              2.1603
 Quadrupole moment (field-independent basis, Debye-Ang):
   XX=            -45.7905   YY=            -44.8835   ZZ=            -57.9100
   XY=             -3.1214   XZ=              0.0000   YZ=              0.0000

  Exact polarizability:     135.713       0.261     102.482      -0.000      -0.000      53.106
 Approx polarizability:     222.907      -4.929     180.551      -0.000      -0.000      84.997

                      1                      2                      3
                      A                      A                      A
 Frequencies --    213.1162               245.4674               390.8222
 Red. masses --      4.0090                 4.4033                 1.2646
 Frc consts  --      0.1073                 0.1563                 0.1138
 IR Inten    --     11.5249                 0.0730                64.3873

                      4                      5                      6
                      A                      A                      A
 Frequencies --    404.5070               432.3298               552.7363
 Red. masses --      3.7174                 2.8104                 6.6199
 Frc consts  --      0.3584                 0.3095                 1.1916
 IR Inten    --      4.1914                 4.1749                 0.0704

                      7                      8                      9
                      A                      A                      A
 Frequencies --    587.1818               618.8377               619.0512
 Red. masses --      3.3720                 2.6630                 6.5280
 Frc consts  --      0.6850                 0.6009                 1.4740
 IR Inten    --      0.5747                 6.2190                 1.1427

                     10                     11                     12
                      A                      A                      A
 Frequencies --    728.9087               754.2298               776.3676
 Red. masses --      1.3471                 1.3148                 5.0052
 Frc consts  --      0.4217                 0.4407                 1.7775
 IR Inten    --     30.8591                87.9859                 2.3023

                     13                     14                     15
                      A                      A                      A
 Frequencies --    783.1684               860.0703               871.4056
 Red. masses --      2.8367                 1.4844                 1.3523
 Frc consts  --      1.0251                 0.6470                 0.6050
 IR Inten    --     14.3361                 0.3344                 2.0164

                     16                     17                     18
                      A                      A                      A
 Frequencies --    890.1111               912.6895               942.4887
 Red. masses --      4.8406                 4.1183                 1.3622
 Frc consts  --      2.2596                 2.0212                 0.7129
 IR Inten    --      0.3488                 6.6134                 1.8112

                     19                     20                     21
                      A                      A                      A
 Frequencies --    977.1202              1034.5507              1089.6334
 Red. masses --      1.2618                 2.1767                 1.6055
 Frc consts  --      0.7098                 1.3726                 1.1231
 IR Inten    --      0.0285                 6.3727                 8.8710

                     22                     23                     24
                      A                      A                      A
 Frequencies --   1109.6116              1143.6953              1175.7200
 Red. masses --      1.4570                 1.4795                 1.1377
 Frc consts  --      1.0569                 1.1402                 0.9266
 IR Inten    --     23.1964                 0.1639                 1.3200

                     25                     26                     27
                      A                      A                      A
 Frequencies --   1225.8370              1271.1307              1298.0023
 Red. masses --      2.2571                 1.6222                 2.8509
 Frc consts  --      1.9984                 1.5443                 2.8300
 IR Inten    --      3.0737                 9.6176                18.4239

                     28                     29                     30
                      A                      A                      A
 Frequencies --   1363.9179              1387.6930              1444.7604
 Red. masses --      5.2745                 1.7246                 2.7072
 Frc consts  --      5.7811                 1.9568                 3.3294
 IR Inten    --     22.9188                 6.8425                17.0564

                     31                     32                     33
                      A                      A                      A
 Frequencies --   1483.6460              1527.7758              1550.5969
 Red. masses --      2.5999                 2.7033                 3.8472
 Frc consts  --      3.3719                 3.7176                 5.4499
 IR Inten    --     21.1500                 2.1596                 5.5708

                     34                     35                     36
                      A                      A                      A
 Frequencies --   1617.3479              1658.2229              3164.8905
 Red. masses --      5.3378                 6.1380                 1.0853
 Frc consts  --      8.2265                 9.9441                 6.4051
 IR Inten    --      1.2530                 2.7103                 1.8946

                     37                     38                     39
                      A                      A                      A
 Frequencies --   3171.0181              3181.5774              3193.0507
 Red. masses --      1.0883                 1.0931                 1.0964
 Frc consts  --      6.4475                 6.5194                 6.5864
 IR Inten    --      2.8701                29.1309                17.1994

                     40                     41                     42
                      A                      A                      A
 Frequencies --   3240.9564              3259.5003              3677.4334
 Red. masses --      1.0898                 1.1034                 1.0801
 Frc consts  --      6.7446                 6.9071                 8.6060
 IR Inten    --      1.3028                 2.5096                68.0984

 - Thermochemistry -
 -------------------
 Temperature   298.150 Kelvin.  Pressure   1.00000 Atm.
 Atom     1 has atomic number  1 and mass   1.00783

 Molecular mass:   117.05785 amu.
 Principal axes and moments of inertia in atomic units:
                           1         2         3
     Eigenvalues --   461.943511098.822981560.76650
           X            1.00000   0.00078  -0.00000
           Y           -0.00078   1.00000   0.00000
           Z            0.00000  -0.00000   1.00000
 This molecule is an asymmetric top.
 Rotational symmetry number  1.
 Warning -- assumption of classical behavior for rotation
           may cause significant error
 Rotational temperatures (Kelvin)      0.18750     0.07882     0.05549
 Rotational constants (GHZ):           3.90684     1.64243     1.15632
 Zero-point vibrational energy     339925.9 (Joules/Mol)
                                   81.24425 (Kcal/Mol)
 Warning -- explicit consideration of   9 degrees of freedom as
           vibrations may cause significant error
 Vibrational temperatures:    306.63   353.17   562.31   582.00   622.03
          (Kelvin)            795.26   844.82   890.37   890.68  1048.74
                             1085.17  1117.02  1126.80  1237.45  1253.76
                             1280.67  1313.16  1356.03  1405.86  1488.49
                             1567.74  1596.48  1645.52  1691.60  1763.71
                             1828.87  1867.54  1962.37  1996.58  2078.69
                             2134.64  2198.13  2230.96  2327.00  2385.81
                             4553.57  4562.39  4577.58  4594.09  4663.01
                             4689.69  5291.01

 Zero-point correction=                           0.129471 (Hartree/Particle)
 Thermal correction to Energy=                    0.135776
 Thermal correction to Enthalpy=                  0.136720
 Thermal correction to Gibbs Free Energy=         0.099157
 Sum of electronic and zero-point Energies=           -363.829293
 Sum of electronic and thermal Energies=              -363.822987
 Sum of electronic and thermal Enthalpies=            -363.822043
 Sum of electronic and thermal Free Energies=         -363.859607

                     E (Thermal)             CV                S
                      KCal/Mol        Cal/Mol-Kelvin    Cal/Mol-Kelvin
 Total                   85.201             26.385             79.060
 Electronic               0.000              0.000              0.000
 Translational            0.889              2.981             40.187
 Rotational               0.889              2.981             28.162
 Vibrational             83.423             20.424             10.710
 Vibration     1          0.644              1.821              2.017
 Vibration     2          0.660              1.770              1.763
 Vibration     3          0.759              1.490              0.997
 Vibration     4          0.770              1.460              0.946
 Vibration     5          0.793              1.400              0.851
 Vibration     6          0.908              1.134              0.539
 Vibration     7          0.944              1.059              0.472
 Vibration     8          0.979              0.992              0.418
 Vibration     9          0.979              0.992              0.418

 Optimization completed.
    -- Stationary point found.
 Normal termination of Gaussian 16 at Mon Sep 26 12:10:02 2022.
