 Gaussian 16, Revision C.01,
 Gaussian 16:  ES64L-G16RevC.01  3-Jul-2019

 ----------------------------------------------------------------------
 #p opt=(calcall,verytight,maxstep=7,maxcycles=100) freq b3lyp geom=con
 nectivity def2tzvpp int=ultrafine
 ----------------------------------------------------------------------

 -------------------
 Title Card Required
 -------------------
 Symbolic Z-matrix:
 Charge =  0 Multiplicity = 1

 SCF Done:  E(RB3LYP) =  -284.554495631     A.U. after   13 cycles
 SCF Done:  E(RB3LYP) =  -284.557039684     A.U. after   10 cycles
 SCF Done:  E(RB3LYP) =  -284.559905528     A.U. after   11 cycles
 SCF Done:  E(RB3LYP) =  -284.560179727     A.U. after   11 cycles
 SCF Done:  E(RB3LYP) =  -284.560187230     A.U. after   10 cycles
 SCF Done:  E(RB3LYP) =  -284.560187234     A.U. after    6 cycles
 SCF Done:  E(RB3LYP) =  -284.560187234     A.U. after    3 cycles
 Optimization completed.
    -- Stationary point found.
 Normal termination of Gaussian 16 at Tue Nov 30 11:40:14 2021.

 ---------------------------------------------------------------------
 #P Geom=AllCheck Guess=TCheck SCRF=Check GenChk RB3LYP/def2TZVPP Freq
 ---------------------------------------------------------------------

 Structure from the checkpoint file:  "gly_qm_2.chk"
 -------------------
 Title Card Required
 -------------------
 Charge =  0 Multiplicity = 1

                         Standard orientation:
 ---------------------------------------------------------------------
 Center     Atomic      Atomic             Coordinates (Angstroms)
 Number     Number       Type             X           Y           Z
 ---------------------------------------------------------------------
      1          6    20001002       -0.536850    0.104174    0.014636
      2          8    20001022       -1.636322   -0.676373   -0.068268
      3          6    20001001        0.726013   -0.717700    0.105280
      4          1    20001034        0.716994   -1.157121    1.114447
      5          1    20001034        0.643380   -1.553795   -0.592281
      6          7    20001020        1.889013    0.097733   -0.195097
      7          1    20001029        1.748159    1.040807    0.145925
      8          1    20001029        2.723536   -0.278432    0.231888
      9          8    20001025       -0.586810    1.305633    0.046275
     10          1    20001031       -2.405088   -0.088514   -0.077854
 ---------------------------------------------------------------------

 SCF Done:  E(RB3LYP) =  -284.560187234     A.U. after    1 cycles

 The electronic state is 1-A.
 Alpha  occ. eigenvalues --  -19.18543 -19.12853 -14.30320 -10.31568 -10.21999
 Alpha  occ. eigenvalues --   -1.12265  -1.03431  -0.89635  -0.73362  -0.61230
 Alpha  occ. eigenvalues --   -0.53402  -0.50067  -0.49607  -0.45417  -0.43855
 Alpha  occ. eigenvalues --   -0.41394  -0.39895  -0.34044  -0.29808  -0.25339
 Alpha virt. eigenvalues --   -0.00799   0.02347   0.03459   0.07324   0.10235
 Alpha virt. eigenvalues --    0.10789   0.15915   0.16367   0.17992   0.20330
 Alpha virt. eigenvalues --    0.22868   0.25268   0.29426   0.30167   0.31817

 Mulliken charges:
               1
     1  C    0.299142
     2  O   -0.273371
     3  C   -0.043915
     4  H    0.091083
     5  H    0.099663
     6  N   -0.334866
     7  H    0.141828
     8  H    0.126099
     9  O   -0.316846
    10  H    0.211185
 Sum of Mulliken charges =  -0.00000

 Dipole moment (field-independent basis, Debye):
    X=             -0.1557    Y=             -1.5454    Z=              1.2840  Tot=              2.0152
 Quadrupole moment (field-independent basis, Debye-Ang):
   XX=            -23.6564   YY=            -33.0358   ZZ=            -30.6001
   XY=             -1.0519   XZ=              3.2703   YZ=              0.1088

  Exact polarizability:      47.097       0.606      42.456       0.548      -0.387      30.072
 Approx polarizability:      57.793       1.812      66.015       0.863      -0.161      43.044

                      1                      2                      3
                      A                      A                      A
 Frequencies --     95.0883               176.7353               281.8891
 Red. masses --      2.5740                 1.0755                 4.8671
 Frc consts  --      0.0137                 0.0198                 0.2279
 IR Inten    --      3.7793                46.9318                 0.4327

                      4                      5                      6
                      A                      A                      A
 Frequencies --    467.1871               519.9227               625.6725
 Red. masses --      4.4419                 1.6633                 2.7874
 Frc consts  --      0.5712                 0.2649                 0.6429
 IR Inten    --     12.8833                27.9548                35.1625

                      7                      8                      9
                      A                      A                      A
 Frequencies --    665.0519               828.8510               840.4175
 Red. masses --      1.8461                 1.2571                 3.1888
 Frc consts  --      0.4811                 0.5088                 1.3270
 IR Inten    --     74.5799               179.0459                10.7695

                     10                     11                     12
                      A                      A                      A
 Frequencies --   1022.6369              1108.6419              1145.8360
 Red. masses --      2.2655                 2.7233                 1.7864
 Frc consts  --      1.3959                 1.9721                 1.3819
 IR Inten    --      4.0973                58.4565               207.7569

                     13                     14                     15
                      A                      A                      A
 Frequencies --   1223.1873              1257.5752              1330.1812
 Red. masses --      1.4126                 1.2465                 1.7408
 Frc consts  --      1.2453                 1.1614                 1.8148
 IR Inten    --     45.3233                 0.4557                29.0574

                     16                     17                     18
                      A                      A                      A
 Frequencies --   1447.1271              1494.3632              1641.0786
 Red. masses --      1.8032                 1.0797                 1.1023
 Frc consts  --      2.2248                 1.4205                 1.7490
 IR Inten    --     21.5859                10.9626                59.9684

                     19                     20                     21
                      A                      A                      A
 Frequencies --   1817.3780              2951.6534              3055.1715
 Red. masses --      8.5976                 1.0739                 1.0849
 Frc consts  --     16.7308                 5.5123                 5.9664
 IR Inten    --    280.0939                42.3869                16.9689

                     22                     23                     24
                      A                      A                      A
 Frequencies --   3513.4642              3600.7735              3753.1662
 Red. masses --      1.0498                 1.0931                 1.0642
 Frc consts  --      7.6353                 8.3505                 8.8320
 IR Inten    --      5.3847                10.9408                68.9761

 - Thermochemistry -
 -------------------
 Temperature   298.150 Kelvin.  Pressure   1.00000 Atm.
 Atom     1 has atomic number  6 and mass  12.00000

 Molecular mass:    75.03203 amu.
 Principal axes and moments of inertia in atomic units:
                           1         2         3
     Eigenvalues --   172.71930 456.07265 611.40352
           X            0.99989  -0.00794   0.01240
           Y            0.00803   0.99994  -0.00695
           Z           -0.01234   0.00705   0.99990
 This molecule is an asymmetric top.
 Rotational symmetry number  1.
 Rotational temperatures (Kelvin)      0.50147     0.18991     0.14166
 Rotational constants (GHZ):          10.44898     3.95714     2.95180
 Zero-point vibrational energy     208527.3 (Joules/Mol)
                                   49.83923 (Kcal/Mol)
 Warning -- explicit consideration of   5 degrees of freedom as
           vibrations may cause significant error
 Vibrational temperatures:    136.81   254.28   405.58   672.18   748.05
          (Kelvin)            900.20   956.86  1192.53  1209.17  1471.35
                             1595.09  1648.60  1759.89  1809.37  1913.83
                             2082.09  2150.06  2361.15  2614.80  4246.77
                             4395.71  5055.09  5180.71  5399.97

 Zero-point correction=                           0.079424 (Hartree/Particle)
 Thermal correction to Energy=                    0.085045
 Thermal correction to Enthalpy=                  0.085990
 Thermal correction to Gibbs Free Energy=         0.050601
 Sum of electronic and zero-point Energies=           -284.480763
 Sum of electronic and thermal Energies=              -284.475142
 Sum of electronic and thermal Enthalpies=            -284.474198
 Sum of electronic and thermal Free Energies=         -284.509587

                     E (Thermal)             CV                S
                      KCal/Mol        Cal/Mol-Kelvin    Cal/Mol-Kelvin
 Total                   53.367             18.686             74.482
 Electronic               0.000              0.000              0.000
 Translational            0.889              2.981             38.862
 Rotational               0.889              2.981             25.380
 Vibrational             51.589             12.725             10.240
 Vibration     1          0.603              1.953              3.553
 Vibration     2          0.628              1.871              2.363
 Vibration     3          0.681              1.707              1.522
 Vibration     4          0.824              1.323              0.745
 Vibration     5          0.875              1.206              0.610

 Optimization completed.
    -- Stationary point found.
 Normal termination of Gaussian 16 at Tue Nov 30 11:41:48 2021.
