 ----------------------------------------------------------
 #p nosymm geom=nocrowd opt=(modredundant,maxcycle=100) PM6
 ----------------------------------------------------------

 -----
 Title
 -----
 Symbolic Z-matrix:
 Charge =  0 Multiplicity = 1

 SCF Done:  E(RPM6) = -0.136973983806     A.U. after   14 cycles
 SCF Done:  E(RPM6) = -0.141314018637     A.U. after   12 cycles
 SCF Done:  E(RPM6) = -0.142342050836     A.U. after   11 cycles
 SCF Done:  E(RPM6) = -0.142490371945     A.U. after   11 cycles
 SCF Done:  E(RPM6) = -0.142544691755     A.U. after   11 cycles
 SCF Done:  E(RPM6) = -0.142616178572     A.U. after   11 cycles
 SCF Done:  E(RPM6) = -0.142746911427     A.U. after   12 cycles
 SCF Done:  E(RPM6) = -0.143419785422     A.U. after   12 cycles
 SCF Done:  E(RPM6) = -0.145507551404     A.U. after   12 cycles
 SCF Done:  E(RPM6) = -0.110620807408     A.U. after   13 cycles
 Optimization completed.
    -- Stationary point found.
 Optimization completed.
 SCF Done:  E(RPM6) = -0.134400862896     A.U. after   13 cycles
 SCF Done:  E(RPM6) = -0.144399159344     A.U. after   12 cycles
 SCF Done:  E(RPM6) = -0.147083162859     A.U. after   12 cycles
 SCF Done:  E(RPM6) = -0.147117282341     A.U. after   10 cycles
 SCF Done:  E(RPM6) = -0.147117987605     A.U. after    9 cycles
    -- Stationary point found.
 SCF Done:  E(RPM6) = -0.136134130452     A.U. after   13 cycles
 SCF Done:  E(RPM6) = -0.145708451625     A.U. after   12 cycles
 SCF Done:  E(RPM6) = -0.148164954239     A.U. after   12 cycles
 SCF Done:  E(RPM6) = -0.148187662038     A.U. after   10 cycles
 SCF Done:  E(RPM6) = -0.148188434250     A.U. after    9 cycles
 Optimization completed.
    -- Stationary point found.

                          Input orientation:
 ---------------------------------------------------------------------
 Center     Atomic      Atomic             Coordinates (Angstroms)
 Number     Number       Type             X           Y           Z
 ---------------------------------------------------------------------
      1          6           0       -0.519982   -0.039489    0.170503
      2          8           0       -1.311279    0.555815   -0.780477
      3          6           0        0.857223   -0.318082   -0.400150
      4          1           0        0.780481   -1.160704   -1.133636
      5          1           0        1.205451    0.559891   -0.998852
      6          7           0        1.869423   -0.657122    0.616188
      7          1           0        2.007278    0.113397    1.265940
      8          1           0        1.577692   -1.463993    1.165208
      9          8           0       -0.952304   -0.262555    1.275506
     10          1           0       -2.231957    0.749254   -0.455281
 ---------------------------------------------------------------------

 Alpha  occ. eigenvalues --       -1.20533      -1.15837      -1.13522      -0.95571      -0.79255
 Alpha  occ. eigenvalues --       -0.67712      -0.66146      -0.63160      -0.59299      -0.56767
 Alpha  occ. eigenvalues --       -0.51845      -0.49041      -0.46138      -0.43389      -0.37353
 Alpha virt. eigenvalues --        0.00787       0.04838       0.08495       0.11204       0.13853
 Alpha virt. eigenvalues --        0.16148       0.16868       0.18536       0.20534       0.23549

 Mulliken charges:
               1
     1  C    0.580730
     2  O   -0.528520
     3  C   -0.249605
     4  H    0.193260
     5  H    0.194671
     6  N   -0.464937
     7  H    0.216984
     8  H    0.221442
     9  O   -0.506973
    10  H    0.342948
 Sum of Mulliken charges =  -0.00000

 Dipole moment (field-independent basis, Debye):
    X=             -0.4904    Y=              0.5082    Z=             -0.7942  Tot=              1.0628
 N-N= 1.247889537643D+02 E-N=-1.629598757426D+02  KE=-6.560307270688D+01
 Leave Link  601 at Tue Nov 28 15:48:24 2023, MaxMem=   134217728 cpu:               0.1 elap:               0.0
 (Enter /home/emanuele/chem_software/gaussian//gdv/l9999.exe)
 Unable to Open any file for archive entry.
 1\1\GINC-EMANUELE-XPS-13-9343\Scan\RPM6\ZDO\C2H5N1O2\EMANUELE\28-Nov-2
 023\0\\#p nosymm geom=nocrowd opt=(modredundant,maxcycle=100) PM6\\Tit
 le\\0,1\C,-0.5199823742,-0.039488832,0.1705033232\O,-1.311278843,0.555
 8147227,-0.7804771926\C,0.8572225653,-0.3180821086,-0.4001499863\H,0.7
 804806631,-1.160704236,-1.133636098\H,1.2054505395,0.5598912322,-0.998
 8520149\N,1.8694232402,-0.6571217855,0.6161884871\H,2.0072778308,0.113

 Normal termination of Gaussian DV at Tue Nov 28 15:48:24 2023.
