 ----------------------------------------------------------
 #p nosymm geom=nocrowd opt=(modredundant,maxcycle=100) PM6
 ----------------------------------------------------------

 -----
 Title
 -----
 Symbolic Z-matrix:
 Charge =  0 Multiplicity = 1

 SCF Done:  E(RPM6) = -0.136973983806     A.U. after   14 cycles
 SCF Done:  E(RPM6) = -0.141345851150     A.U. after   12 cycles
 SCF Done:  E(RPM6) = -0.142431265221     A.U. after   11 cycles
 SCF Done:  E(RPM6) = -0.142583417742     A.U. after   11 cycles
 SCF Done:  E(RPM6) = -0.142560578697     A.U. after   12 cycles
 SCF Done:  E(RPM6) = -0.142659044971     A.U. after   11 cycles
 SCF Done:  E(RPM6) = -0.142680554796     A.U. after   11 cycles
 SCF Done:  E(RPM6) = -0.142692287375     A.U. after   11 cycles
 SCF Done:  E(RPM6) = -0.142695246826     A.U. after   10 cycles
 SCF Done:  E(RPM6) = -0.142695476342     A.U. after    9 cycles
 Optimization completed.
    -- Stationary point found.
 Optimization completed.
 SCF Done:  E(RPM6) = -0.142842756385     A.U. after   12 cycles
 SCF Done:  E(RPM6) = -0.143030161513     A.U. after   12 cycles
 SCF Done:  E(RPM6) = -0.143049007505     A.U. after   11 cycles
 SCF Done:  E(RPM6) = -0.143050593441     A.U. after   10 cycles
    -- Stationary point found.
 SCF Done:  E(RPM6) = -0.125340596769     A.U. after   12 cycles
 SCF Done:  E(RPM6) = -0.138021015216     A.U. after   12 cycles
 SCF Done:  E(RPM6) = -0.141527639651     A.U. after   12 cycles
 SCF Done:  E(RPM6) = -0.141782716762     A.U. after   12 cycles
 SCF Done:  E(RPM6) = -0.141805645323     A.U. after   10 cycles
 SCF Done:  E(RPM6) = -0.141806313817     A.U. after    9 cycles
 Optimization completed.
    -- Stationary point found.

                          Input orientation:
 ---------------------------------------------------------------------
 Center     Atomic      Atomic             Coordinates (Angstroms)
 Number     Number       Type             X           Y           Z
 ---------------------------------------------------------------------
      1          6           0       -0.675496   -0.375414    0.293953
      2          8           0       -0.864918    0.179024   -0.954137
      3          6           0        0.748122   -0.176877    0.755346
      4          1           0        0.840524    0.852425    1.175232
      5          1           0        0.946789   -0.887684    1.601576
      6          7           0        1.732148   -0.492259   -0.317621
      7          1           0        1.363754   -0.231338   -1.232546
      8          1           0        2.581544    0.047768   -0.173838
      9          8           0       -1.600295   -0.887304    0.872611
     10          1           0       -1.790147    0.048070   -1.295626
 ---------------------------------------------------------------------

 Alpha  occ. eigenvalues --       -1.20290      -1.16276      -1.12708      -0.95134      -0.80427
 Alpha  occ. eigenvalues --       -0.66632      -0.65444      -0.63126      -0.58339      -0.55733
 Alpha  occ. eigenvalues --       -0.52842      -0.50870      -0.46026      -0.42298      -0.36838
 Alpha virt. eigenvalues --        0.00919       0.04861       0.09209       0.10397       0.14163
 Alpha virt. eigenvalues --        0.15909       0.17309       0.18187       0.20498       0.23752

 Mulliken charges:
               1
     1  C    0.629134
     2  O   -0.542025
     3  C   -0.258891
     4  H    0.159641
     5  H    0.196846
     6  N   -0.479817
     7  H    0.225243
     8  H    0.212699
     9  O   -0.488634
    10  H    0.345803
 Sum of Mulliken charges =   0.00000

 Dipole moment (field-independent basis, Debye):
    X=              1.1130    Y=              2.5819    Z=             -0.5678  Tot=              2.8683
 N-N= 1.252120617686D+02 E-N=-1.638897954910D+02  KE=-6.555828791780D+01
 Leave Link  601 at Sat Nov 25 14:42:50 2023, MaxMem=   134217728 cpu:               0.1 elap:               0.0
 (Enter /home/emanuele/chem_software/gaussian//gdv/l9999.exe)
 Unable to Open any file for archive entry.
 1\1\GINC-EMANUELE-XPS-13-9343\Scan\RPM6\ZDO\C2H5N1O2\EMANUELE\25-Nov-2
 023\0\\#p nosymm geom=nocrowd opt=(modredundant,maxcycle=100) PM6\\Tit
 le\\0,1\C,-0.6754961132,-0.375413714,0.2939532769\O,-0.8649178358,0.17
 90239745,-0.9541373677\C,0.7481218427,-0.1768768809,0.755345695\H,0.84
 05236049,0.8524252234,1.1752321012\H,0.9467889507,-0.8876838012,1.6015
 763559\N,1.7321482326,-0.49225908,-0.3176205455\H,1.3637543785,-0.2313

 Normal termination of Gaussian DV at Sat Nov 25 14:42:50 2023.
