 ----------------------------------------------------------
 #p nosymm geom=nocrowd opt=(modredundant,maxcycle=100) PM6
 ----------------------------------------------------------

 -----
 Title
 -----
 Symbolic Z-matrix:
 Charge =  0 Multiplicity = 1

 SCF Done:  E(RPM6) = -0.136973983806     A.U. after   14 cycles
 SCF Done:  E(RPM6) = -0.141328503758     A.U. after   12 cycles
 SCF Done:  E(RPM6) = -0.142400640506     A.U. after   11 cycles
 SCF Done:  E(RPM6) = -0.142585199516     A.U. after   11 cycles
 SCF Done:  E(RPM6) = -0.142648696458     A.U. after   11 cycles
 SCF Done:  E(RPM6) = -0.142683893723     A.U. after   11 cycles
 SCF Done:  E(RPM6) = -0.142701464905     A.U. after   11 cycles
 SCF Done:  E(RPM6) = -0.142722409816     A.U. after   11 cycles
 SCF Done:  E(RPM6) = -0.142767251396     A.U. after   11 cycles
 SCF Done:  E(RPM6) = -0.142965085939     A.U. after   12 cycles
 Optimization completed.
    -- Stationary point found.
 Optimization completed.
 SCF Done:  E(RPM6) = -0.134016768588     A.U. after   12 cycles
 SCF Done:  E(RPM6) = -0.134019039419     A.U. after   10 cycles
 SCF Done:  E(RPM6) = -0.141368209189     A.U. after   13 cycles
 SCF Done:  E(RPM6) = -0.143216305762     A.U. after   12 cycles
 SCF Done:  E(RPM6) = -0.143237471924     A.U. after   11 cycles
    -- Stationary point found.
 SCF Done:  E(RPM6) = -0.147614151208     A.U. after   12 cycles
 SCF Done:  E(RPM6) = -0.148260168931     A.U. after   12 cycles
 SCF Done:  E(RPM6) = -0.148285983004     A.U. after   11 cycles
 SCF Done:  E(RPM6) = -0.148290304000     A.U. after   11 cycles
 SCF Done:  E(RPM6) = -0.148290478018     A.U. after   10 cycles
 Optimization completed.
    -- Stationary point found.

                          Input orientation:
 ---------------------------------------------------------------------
 Center     Atomic      Atomic             Coordinates (Angstroms)
 Number     Number       Type             X           Y           Z
 ---------------------------------------------------------------------
      1          6           0       -0.465861    0.122526    0.209638
      2          8           0       -1.630916   -0.594479    0.092114
      3          6           0        0.723539   -0.764366   -0.102695
      4          1           0        0.719961   -1.645387    0.587322
      5          1           0        0.601984   -1.200405   -1.126138
      6          7           0        2.024684   -0.078181   -0.013735
      7          1           0        2.068109    0.705956   -0.661286
      8          1           0        2.175459    0.297313    0.920363
      9          8           0       -0.493321    1.289342    0.519069
     10          1           0       -2.441614   -0.055906    0.300299
 ---------------------------------------------------------------------

 Alpha  occ. eigenvalues --       -1.20532      -1.15833      -1.13502      -0.95597      -0.79220
 Alpha  occ. eigenvalues --       -0.67507      -0.66429      -0.63177      -0.59066      -0.56962
 Alpha  occ. eigenvalues --       -0.51830      -0.49003      -0.46141      -0.43379      -0.37365
 Alpha virt. eigenvalues --        0.00810       0.04822       0.08472       0.11243       0.13855
 Alpha virt. eigenvalues --        0.16135       0.16856       0.18523       0.20551       0.23554

 Mulliken charges:
               1
     1  C    0.581262
     2  O   -0.528958
     3  C   -0.250519
     4  H    0.194156
     5  H    0.194355
     6  N   -0.464205
     7  H    0.219065
     8  H    0.219135
     9  O   -0.507498
    10  H    0.343207
 Sum of Mulliken charges =   0.00000

 Dipole moment (field-independent basis, Debye):
    X=             -0.8126    Y=             -0.6546    Z=             -0.0945  Tot=              1.0478
 N-N= 1.247895145222D+02 E-N=-1.629602578131D+02  KE=-6.560451005070D+01
 Leave Link  601 at Sat Nov 25 14:46:21 2023, MaxMem=   134217728 cpu:               0.2 elap:               0.0
 (Enter /home/emanuele/chem_software/gaussian//gdv/l9999.exe)
 Unable to Open any file for archive entry.
 1\1\GINC-EMANUELE-XPS-13-9343\Scan\RPM6\ZDO\C2H5N1O2\EMANUELE\25-Nov-2
 023\0\\#p nosymm geom=nocrowd opt=(modredundant,maxcycle=100) PM6\\Tit
 le\\0,1\C,-0.4658609733,0.1225256899,0.2096383589\O,-1.6309155089,-0.5
 944789806,0.0921141847\C,0.7235390263,-0.7643659085,-0.1026949102\H,0.
 7199610279,-1.645386977,0.5873218087\H,0.6019842631,-1.2004054269,-1.1
 261383774\N,2.0246841256,-0.0781810458,-0.0137352539\H,2.0681092733,0.

 Normal termination of Gaussian DV at Sat Nov 25 14:46:21 2023.
