 ----------------------------------------------------------
 #p nosymm geom=nocrowd opt=(modredundant,maxcycle=100) PM6
 ----------------------------------------------------------

 -----
 Title
 -----
 Symbolic Z-matrix:
 Charge =  0 Multiplicity = 1

 SCF Done:  E(RPM6) = -0.136973983806     A.U. after   14 cycles
 SCF Done:  E(RPM6) = -0.141214536496     A.U. after   12 cycles
 SCF Done:  E(RPM6) = -0.142250601612     A.U. after   11 cycles
 SCF Done:  E(RPM6) = -0.142390970786     A.U. after   11 cycles
 SCF Done:  E(RPM6) = -0.142463529168     A.U. after   11 cycles
 SCF Done:  E(RPM6) = -0.142528822530     A.U. after   10 cycles
 SCF Done:  E(RPM6) = -0.142807799346     A.U. after   12 cycles
 SCF Done:  E(RPM6) = -0.143576625173     A.U. after   12 cycles
 SCF Done:  E(RPM6) = -0.144940737721     A.U. after   12 cycles
 SCF Done:  E(RPM6) = -0.145648171010     A.U. after   12 cycles
 Optimization completed.
    -- Stationary point found.
 Optimization completed.
 SCF Done:  E(RPM6) = -0.143953780634     A.U. after   12 cycles
 SCF Done:  E(RPM6) = -0.146922275435     A.U. after   12 cycles
 SCF Done:  E(RPM6) = -0.146966486010     A.U. after   11 cycles
 SCF Done:  E(RPM6) = -0.146967675725     A.U. after   10 cycles
    -- Stationary point found.
 SCF Done:  E(RPM6) = -0.134520083561     A.U. after   13 cycles
 SCF Done:  E(RPM6) = -0.145390003840     A.U. after   12 cycles
 SCF Done:  E(RPM6) = -0.148075940790     A.U. after   12 cycles
 SCF Done:  E(RPM6) = -0.148142575811     A.U. after   11 cycles
 SCF Done:  E(RPM6) = -0.148145005307     A.U. after   10 cycles
 SCF Done:  E(RPM6) = -0.148145189146     A.U. after    9 cycles
 Optimization completed.
    -- Stationary point found.

                          Input orientation:
 ---------------------------------------------------------------------
 Center     Atomic      Atomic             Coordinates (Angstroms)
 Number     Number       Type             X           Y           Z
 ---------------------------------------------------------------------
      1          6           0       -0.517872   -0.020191    0.167639
      2          8           0       -1.268586    0.648535   -0.767419
      3          6           0        0.849618   -0.346124   -0.401376
      4          1           0        0.745439   -1.186854   -1.133095
      5          1           0        1.225182    0.517857   -1.004979
      6          7           0        1.851941   -0.708679    0.616254
      7          1           0        2.011747    0.060588    1.262208
      8          1           0        1.538324   -1.504985    1.168517
      9          8           0       -0.971883   -0.259372    1.260541
     10          1           0       -2.181885    0.875637   -0.443340
 ---------------------------------------------------------------------

 Alpha  occ. eigenvalues --       -1.20523      -1.15844      -1.13523      -0.95575      -0.79265
 Alpha  occ. eigenvalues --       -0.67758      -0.66065      -0.63150      -0.59380      -0.56723
 Alpha  occ. eigenvalues --       -0.51855      -0.49027      -0.46134      -0.43392      -0.37346
 Alpha virt. eigenvalues --        0.00780       0.04846       0.08511       0.11194       0.13856
 Alpha virt. eigenvalues --        0.16130       0.16875       0.18544       0.20529       0.23550

 Mulliken charges:
               1
     1  C    0.580644
     2  O   -0.528606
     3  C   -0.249796
     4  H    0.193039
     5  H    0.194794
     6  N   -0.464733
     7  H    0.216859
     8  H    0.221627
     9  O   -0.506692
    10  H    0.342866
 Sum of Mulliken charges =  -0.00000

 Dipole moment (field-independent basis, Debye):
    X=             -0.4539    Y=              0.5603    Z=             -0.7818  Tot=              1.0636
 N-N= 1.247838670707D+02 E-N=-1.629500964598D+02  KE=-6.560270528644D+01
 Leave Link  601 at Tue Nov 28 15:29:16 2023, MaxMem=   134217728 cpu:               0.1 elap:               0.0
 (Enter /home/emanuele/chem_software/gaussian//gdv/l9999.exe)
 Unable to Open any file for archive entry.
 1\1\GINC-EMANUELE-XPS-13-9343\Scan\RPM6\ZDO\C2H5N1O2\EMANUELE\28-Nov-2
 023\0\\#p nosymm geom=nocrowd opt=(modredundant,maxcycle=100) PM6\\Tit
 le\\0,1\C,-0.5178717626,-0.0201914392,0.1676390576\O,-1.2685861033,0.6
 485351623,-0.767419096\C,0.8496181634,-0.3461244638,-0.4013756539\H,0.
 7454391617,-1.1868537695,-1.1330945228\H,1.2251822037,0.5178567408,-1.
 0049791657\N,1.8519408534,-0.7086788613,0.6162535976\H,2.0117472234,0.

 Normal termination of Gaussian DV at Tue Nov 28 15:29:16 2023.
