 ----------------------------------------------------------
 #p nosymm geom=nocrowd opt=(modredundant,maxcycle=100) PM6
 ----------------------------------------------------------

 -----
 Title
 -----
 Symbolic Z-matrix:
 Charge =  0 Multiplicity = 1

 SCF Done:  E(RPM6) = -0.136973983806     A.U. after   14 cycles
 SCF Done:  E(RPM6) = -0.141325547214     A.U. after   12 cycles
 SCF Done:  E(RPM6) = -0.142395263203     A.U. after   11 cycles
 SCF Done:  E(RPM6) = -0.142575888055     A.U. after   11 cycles
 SCF Done:  E(RPM6) = -0.142632111720     A.U. after   11 cycles
 SCF Done:  E(RPM6) = -0.142663175535     A.U. after   11 cycles
 SCF Done:  E(RPM6) = -0.142686749195     A.U. after   10 cycles
 SCF Done:  E(RPM6) = -0.142713002276     A.U. after   11 cycles
 SCF Done:  E(RPM6) = -0.142714909456     A.U. after   10 cycles
 SCF Done:  E(RPM6) = -0.142733365244     A.U. after   11 cycles
 Optimization completed.
    -- Stationary point found.
 Optimization completed.
 SCF Done:  E(RPM6) = -0.132811485429     A.U. after   10 cycles
 SCF Done:  E(RPM6) = -0.138459136563     A.U. after   13 cycles
 SCF Done:  E(RPM6) = -0.142253270542     A.U. after   12 cycles
 SCF Done:  E(RPM6) = -0.142349866419     A.U. after   12 cycles
 SCF Done:  E(RPM6) = -0.142352829336     A.U. after   10 cycles
    -- Stationary point found.
 SCF Done:  E(RPM6) = -0.146869445072     A.U. after   12 cycles
 SCF Done:  E(RPM6) = -0.148201980059     A.U. after   12 cycles
 SCF Done:  E(RPM6) = -0.148249817638     A.U. after   12 cycles
 SCF Done:  E(RPM6) = -0.148259848015     A.U. after   11 cycles
 SCF Done:  E(RPM6) = -0.148260046600     A.U. after   10 cycles
 Optimization completed.
    -- Stationary point found.

                          Input orientation:
 ---------------------------------------------------------------------
 Center     Atomic      Atomic             Coordinates (Angstroms)
 Number     Number       Type             X           Y           Z
 ---------------------------------------------------------------------
      1          6           0       -0.472331    0.101983    0.218595
      2          8           0       -1.623307   -0.629800    0.060062
      3          6           0        0.734767   -0.748191   -0.126180
      4          1           0        0.748063   -1.653550    0.531569
      5          1           0        0.623220   -1.149537   -1.164822
      6          7           0        2.021862   -0.040001   -0.009740
      7          1           0        2.052227    0.765346   -0.631314
      8          1           0        2.162037    0.307762    0.936675
      9          8           0       -0.522046    1.249045    0.592276
     10          1           0       -2.442467   -0.126645    0.317830
 ---------------------------------------------------------------------

 Alpha  occ. eigenvalues --       -1.20534      -1.15833      -1.13505      -0.95596      -0.79220
 Alpha  occ. eigenvalues --       -0.67520      -0.66415      -0.63177      -0.59078      -0.56950
 Alpha  occ. eigenvalues --       -0.51833      -0.49000      -0.46141      -0.43380      -0.37363
 Alpha virt. eigenvalues --        0.00807       0.04824       0.08473       0.11243       0.13856
 Alpha virt. eigenvalues --        0.16134       0.16856       0.18524       0.20553       0.23557

 Mulliken charges:
               1
     1  C    0.581330
     2  O   -0.529044
     3  C   -0.250611
     4  H    0.194204
     5  H    0.194326
     6  N   -0.464224
     7  H    0.218870
     8  H    0.219321
     9  O   -0.507360
    10  H    0.343190
 Sum of Mulliken charges =   0.00000

 Dipole moment (field-independent basis, Debye):
    X=             -0.7978    Y=             -0.6717    Z=             -0.1082  Tot=              1.0485
 N-N= 1.247893844108D+02 E-N=-1.629599282115D+02  KE=-6.560449594912D+01
 Leave Link  601 at Sat Nov 25 14:44:31 2023, MaxMem=   134217728 cpu:               0.1 elap:               0.0
 (Enter /home/emanuele/chem_software/gaussian//gdv/l9999.exe)
 Unable to Open any file for archive entry.
 1\1\GINC-EMANUELE-XPS-13-9343\Scan\RPM6\ZDO\C2H5N1O2\EMANUELE\25-Nov-2
 023\0\\#p nosymm geom=nocrowd opt=(modredundant,maxcycle=100) PM6\\Tit
 le\\0,1\C,-0.4723313804,0.1019826604,0.218595493\O,-1.6233073958,-0.62
 97999014,0.0600619153\C,0.7347674913,-0.7481905096,-0.1261803457\H,0.7
 480632062,-1.6535502641,0.5315690537\H,0.6232196372,-1.1495372795,-1.1
 648220574\N,2.0218620907,-0.0400006483,-0.0097399118\H,2.0522269489,0.

 Normal termination of Gaussian DV at Sat Nov 25 14:44:31 2023.
