 ----------------------------------------------------------
 #p nosymm geom=nocrowd opt=(modredundant,maxcycle=100) PM6
 ----------------------------------------------------------

 -----
 Title
 -----
 Symbolic Z-matrix:
 Charge =  0 Multiplicity = 1

 SCF Done:  E(RPM6) = -0.136973983806     A.U. after   14 cycles
 SCF Done:  E(RPM6) = -0.141360098633     A.U. after   12 cycles
 SCF Done:  E(RPM6) = -0.142381787280     A.U. after   11 cycles
 SCF Done:  E(RPM6) = -0.142552793271     A.U. after   11 cycles
 SCF Done:  E(RPM6) = -0.142563923800     A.U. after   11 cycles
 SCF Done:  E(RPM6) = -0.142626780076     A.U. after   11 cycles
 SCF Done:  E(RPM6) = -0.142658260145     A.U. after   10 cycles
 SCF Done:  E(RPM6) = -0.142678726647     A.U. after   11 cycles
 SCF Done:  E(RPM6) = -0.142682571853     A.U. after   10 cycles
 SCF Done:  E(RPM6) = -0.142682879230     A.U. after    9 cycles
 Optimization completed.
    -- Stationary point found.
 Optimization completed.
 SCF Done:  E(RPM6) = -0.142576716471     A.U. after   12 cycles
 SCF Done:  E(RPM6) = -0.142612979830     A.U. after   11 cycles
 SCF Done:  E(RPM6) = -0.142616679501     A.U. after   10 cycles
 SCF Done:  E(RPM6) = -0.142616937413     A.U. after    9 cycles
    -- Stationary point found.
 SCF Done:  E(RPM6) = -0.122267548983     A.U. after   12 cycles
 SCF Done:  E(RPM6) = -0.136756273543     A.U. after   12 cycles
 SCF Done:  E(RPM6) = -0.141493259847     A.U. after   12 cycles
 SCF Done:  E(RPM6) = -0.141841802393     A.U. after   12 cycles
 SCF Done:  E(RPM6) = -0.141863366995     A.U. after   11 cycles
 SCF Done:  E(RPM6) = -0.141863857156     A.U. after    9 cycles
 Optimization completed.
    -- Stationary point found.

                          Input orientation:
 ---------------------------------------------------------------------
 Center     Atomic      Atomic             Coordinates (Angstroms)
 Number     Number       Type             X           Y           Z
 ---------------------------------------------------------------------
      1          6           0       -0.675676   -0.402674    0.274771
      2          8           0       -0.873883    0.200505   -0.948997
      3          6           0        0.737644   -0.176115    0.755372
      4          1           0        0.808571    0.851240    1.183301
      5          1           0        0.940514   -0.888274    1.599318
      6          7           0        1.730874   -0.470781   -0.314556
      7          1           0        1.392249   -0.141946   -1.219084
      8          1           0        2.599355    0.021463   -0.122159
      9          8           0       -1.586711   -0.970065    0.822432
     10          1           0       -1.790911    0.053059   -1.305447
 ---------------------------------------------------------------------

 Alpha  occ. eigenvalues --       -1.20227      -1.16262      -1.12680      -0.95124      -0.80348
 Alpha  occ. eigenvalues --       -0.66586      -0.65356      -0.63062      -0.58500      -0.55810
 Alpha  occ. eigenvalues --       -0.52637      -0.50821      -0.45952      -0.42244      -0.36869
 Alpha virt. eigenvalues --        0.00989       0.04941       0.09287       0.10401       0.14214
 Alpha virt. eigenvalues --        0.15939       0.17378       0.18192       0.20447       0.23738

 Mulliken charges:
               1
     1  C    0.632278
     2  O   -0.541469
     3  C   -0.259612
     4  H    0.158520
     5  H    0.195732
     6  N   -0.479915
     7  H    0.224713
     8  H    0.213288
     9  O   -0.488918
    10  H    0.345383
 Sum of Mulliken charges =  -0.00000

 Dipole moment (field-independent basis, Debye):
    X=              1.1821    Y=              2.6590    Z=             -0.4274  Tot=              2.9411
 N-N= 1.252069183025D+02 E-N=-1.638923693182D+02  KE=-6.555563072529D+01
 Leave Link  601 at Sat Nov 25 14:45:27 2023, MaxMem=   134217728 cpu:               0.1 elap:               0.0
 (Enter /home/emanuele/chem_software/gaussian//gdv/l9999.exe)
 Unable to Open any file for archive entry.
 1\1\GINC-EMANUELE-XPS-13-9343\Scan\RPM6\ZDO\C2H5N1O2\EMANUELE\25-Nov-2
 023\0\\#p nosymm geom=nocrowd opt=(modredundant,maxcycle=100) PM6\\Tit
 le\\0,1\C,-0.6756759943,-0.4026737445,0.2747712791\O,-0.8738834554,0.2
 005048,-0.9489967595\C,0.7376435162,-0.1761153073,0.7553717399\H,0.808
 5708766,0.8512403219,1.1833008237\H,0.9405135941,-0.888274263,1.599317
 7418\N,1.7308739077,-0.4707806219,-0.3145560918\H,1.392249049,-0.14194

 Normal termination of Gaussian DV at Sat Nov 25 14:45:27 2023.
