 Gaussian 16, Revision C.01,
 Gaussian 16:  ES64L-G16RevC.01  3-Jul-2019

 ----------------------------------------------------------------------
 #P B3LYP/def2TZVPP Geom=Connectivity opt=(calcall,tight,maxstep=7,maxc
 ycles=100) Freq
 ----------------------------------------------------------------------

 -------------------
 Title Card Required
 -------------------
 Symbolic Z-matrix:
 Charge =  0 Multiplicity = 1

 SCF Done:  E(RB3LYP) =  -76.4661820284     A.U. after    9 cycles
 SCF Done:  E(RB3LYP) =  -76.4666650831     A.U. after    8 cycles
 SCF Done:  E(RB3LYP) =  -76.4666733673     A.U. after    7 cycles
 SCF Done:  E(RB3LYP) =  -76.4666733676     A.U. after    4 cycles
 Optimization completed.
    -- Stationary point found.
 Normal termination of Gaussian 16 at Wed Nov 24 22:33:45 2021.

 ---------------------------------------------------------------------
 #P Geom=AllCheck Guess=TCheck SCRF=Check GenChk RB3LYP/def2TZVPP Freq
 ---------------------------------------------------------------------

 Structure from the checkpoint file:  "g16_qm.chk"
 -------------------
 Title Card Required
 -------------------
 Charge =  0 Multiplicity = 1

                         Standard orientation:
 ---------------------------------------------------------------------
 Center     Atomic      Atomic             Coordinates (Angstroms)
 Number     Number       Type             X           Y           Z
 ---------------------------------------------------------------------
      1          8           0        0.000000   -0.000000    0.117107
      2          1           0       -0.000000    0.761712   -0.468429
      3          1           0       -0.000000   -0.761712   -0.468429
 ---------------------------------------------------------------------

 SCF Done:  E(RB3LYP) =  -76.4666733676     A.U. after    1 cycles

 The electronic state is 1-A1.
 Alpha  occ. eigenvalues --  -19.12694  -1.01420  -0.53467  -0.39186  -0.31695
 Alpha virt. eigenvalues --    0.01381   0.09011   0.35692   0.39759   0.40801
 Alpha virt. eigenvalues --    0.42415   0.53306   0.55763   0.64594   0.67277
 Alpha virt. eigenvalues --    0.76760   0.99890   1.15929   1.22006   1.70492

 Mulliken charges:
               1
     1  O   -0.394721
     2  H    0.197360
     3  H    0.197360
 Sum of Mulliken charges =  -0.00000

 Dipole moment (field-independent basis, Debye):
    X=             -0.0000    Y=              0.0000    Z=             -1.9428  Tot=              1.9428
 Quadrupole moment (field-independent basis, Debye-Ang):
   XX=             -7.5242   YY=             -4.3781   ZZ=             -6.3205
   XY=              0.0000   XZ=              0.0000   YZ=             -0.0000

  Exact polarizability:       6.019       0.000       8.659       0.000      -0.000       7.581
 Approx polarizability:       6.689       0.000      11.002       0.000      -0.000       9.444

                      1                      2                      3
                     A1                     A1                     B2
 Frequencies --   1632.7820              3810.2269              3913.1444
 Red. masses --      1.0833                 1.0446                 1.0823
 Frc consts  --      1.7016                 8.9351                 9.7641
 IR Inten    --     69.8191                 4.5361                49.0358

 - Thermochemistry -
 -------------------
 Temperature   298.150 Kelvin.  Pressure   1.00000 Atm.
 Atom     1 has atomic number  8 and mass  15.99491

 Molecular mass:    18.01056 amu.
 Principal axes and moments of inertia in atomic units:
                           1         2         3
     Eigenvalues --     2.19167   4.17633   6.36800
           X            0.00000   0.00000   1.00000
           Y            1.00000   0.00000  -0.00000
           Z           -0.00000   1.00000  -0.00000
 This molecule is an asymmetric top.
 Rotational symmetry number  2.
 Rotational temperatures (Kelvin)     39.51959    20.73923    13.60143
 Rotational constants (GHZ):         823.45458   432.13551   283.40775
 Zero-point vibrational energy      55962.2 (Joules/Mol)
                                   13.37529 (Kcal/Mol)
 Vibrational temperatures:   2349.21  5482.07  5630.14
          (Kelvin)

 Zero-point correction=                           0.021315 (Hartree/Particle)
 Thermal correction to Energy=                    0.024150
 Thermal correction to Enthalpy=                  0.025094
 Thermal correction to Gibbs Free Energy=         0.003676
 Sum of electronic and zero-point Energies=            -76.445358
 Sum of electronic and thermal Energies=               -76.442523
 Sum of electronic and thermal Enthalpies=             -76.441579
 Sum of electronic and thermal Free Energies=          -76.462998

                     E (Thermal)             CV                S
                      KCal/Mol        Cal/Mol-Kelvin    Cal/Mol-Kelvin
 Total                   15.155              6.008             45.080
 Electronic               0.000              0.000              0.000
 Translational            0.889              2.981             34.608
 Rotational               0.889              2.981             10.465
 Vibrational             13.377              0.047              0.007

 Optimization completed.
    -- Stationary point found.
 Normal termination of Gaussian 16 at Wed Nov 24 22:33:51 2021.
