 Gaussian 16, Revision C.01,
 Gaussian 16:  ES64L-G16RevC.01  3-Jul-2019

 ----------------------------------------------------------------------
 #p opt=(calcall,tight,maxstep=7,maxcycles=100) freq b3lyp 6-31G(d) pop
 =cm5 SCRF(Solvent=water)
 ----------------------------------------------------------------------

 -----
 title
 -----
 Symbolic Z-matrix:
 Charge =  0 Multiplicity = 1

 SCF Done:  E(RB3LYP) =  -686.343817502     A.U. after   13 cycles
 SCF Done:  E(RB3LYP) =  -686.351536805     A.U. after   10 cycles
 SCF Done:  E(RB3LYP) =  -686.363124052     A.U. after   11 cycles
 SCF Done:  E(RB3LYP) =  -686.369013455     A.U. after   11 cycles
 SCF Done:  E(RB3LYP) =  -686.372126599     A.U. after   11 cycles
 SCF Done:  E(RB3LYP) =  -686.373511511     A.U. after   11 cycles
 SCF Done:  E(RB3LYP) =  -686.373815592     A.U. after   11 cycles
 SCF Done:  E(RB3LYP) =  -686.373858526     A.U. after   10 cycles
 SCF Done:  E(RB3LYP) =  -686.373864807     A.U. after    9 cycles
 SCF Done:  E(RB3LYP) =  -686.373866255     A.U. after    9 cycles
 SCF Done:  E(RB3LYP) =  -686.373866251     A.U. after    6 cycles
 SCF Done:  E(RB3LYP) =  -686.373866258     A.U. after    5 cycles
 Optimization completed.
    -- Stationary point found.
 Normal termination of Gaussian 16 at Thu Jun 23 13:40:30 2022.

 --------------------------------------------------------------------
 #P Geom=AllCheck Guess=TCheck SCRF=Check GenChk RB3LYP/6-31G(d) Freq
 --------------------------------------------------------------------

 Structure from the checkpoint file:  "trp_zion_631g.chk"
 -----
 title
 -----
 Charge =  0 Multiplicity = 1

                         Standard orientation:
 ---------------------------------------------------------------------
 Center     Atomic      Atomic             Coordinates (Angstroms)
 Number     Number       Type             X           Y           Z
 ---------------------------------------------------------------------
      1          7           0       -2.002404   -0.762149    1.404949
      2          6           0       -1.980908    0.274005    0.308743
      3          6           0       -3.484017    0.540014   -0.046615
      4          8           0       -4.300518   -0.254632    0.509901
      5          6           0       -1.200883   -0.247395   -0.915969
      6          6           0        0.205175   -0.676063   -0.613110
      7          6           0        0.667336   -1.973767   -0.574490
      8          6           0        1.330650    0.163680   -0.272178
      9          7           0        2.003035   -1.991432   -0.235954
     10          6           0        2.441072   -0.698304   -0.043490
     11          6           0        1.514579    1.553777   -0.148698
     12          6           0        3.707102   -0.211816    0.304471
     13          6           0        2.770110    2.040910    0.195961
     14          6           0        3.854825    1.166108    0.421776
     15          8           0       -3.697262    1.465568   -0.849053
     16          1           0       -3.018488   -1.060317    1.375778
     17          1           0       -1.353337   -1.538384    1.234383
     18          1           0       -1.514776    1.176743    0.705204
     19          1           0       -1.755990   -1.087253   -1.352975
     20          1           0       -1.227797    0.561936   -1.653328
     21          1           0        0.144443   -2.896544   -0.788315
     22          1           0        2.568911   -2.823062   -0.150364
     23          1           0        0.690244    2.240236   -0.324693
     24          1           0        4.541471   -0.886379    0.474840
     25          1           0        2.922519    3.112370    0.293172
     26          1           0        4.824287    1.576774    0.690339
     27          1           0       -1.793901   -0.375436    2.327806
 ---------------------------------------------------------------------

 SCF Done:  E(RB3LYP) =  -686.373866258     A.U. after    1 cycles

 The electronic state is 1-A.
 Alpha  occ. eigenvalues --  -19.09573 -19.08381 -14.43243 -14.37994 -10.27273
 Alpha  occ. eigenvalues --  -10.24033 -10.22335 -10.22210 -10.20396 -10.19116
 Alpha  occ. eigenvalues --  -10.18932 -10.18902 -10.18826 -10.18734 -10.18352
 Alpha  occ. eigenvalues --   -1.02838  -0.98173  -0.97881  -0.93578  -0.84053
 Alpha  occ. eigenvalues --   -0.80936  -0.75775  -0.73626  -0.71968  -0.66005
 Alpha  occ. eigenvalues --   -0.62330  -0.59485  -0.57451  -0.57014  -0.55889
 Alpha  occ. eigenvalues --   -0.53847  -0.51060  -0.49047  -0.47820  -0.46766
 Alpha  occ. eigenvalues --   -0.44398  -0.43130  -0.42876  -0.42165  -0.40895
 Alpha  occ. eigenvalues --   -0.40379  -0.39256  -0.39145  -0.37786  -0.36175
 Alpha  occ. eigenvalues --   -0.35160  -0.33711  -0.33417  -0.27955  -0.24866
 Alpha  occ. eigenvalues --   -0.24796  -0.22940  -0.22652  -0.20764
 Alpha virt. eigenvalues --   -0.01524   0.02034   0.05017   0.05656   0.06666
 Alpha virt. eigenvalues --    0.09638   0.10115   0.10638   0.12568   0.13466
 Alpha virt. eigenvalues --    0.14863   0.14978   0.15426   0.16805   0.17385

 Mulliken charges:
               1
     1  N   -0.734816
     2  C   -0.096457
     3  C    0.585217
     4  O   -0.639578
     5  C   -0.375418
     6  C    0.033982
     7  C   -0.011832
     8  C    0.076778
     9  N   -0.677731
    10  C    0.299775
    11  C   -0.229974
    12  C   -0.177278
    13  C   -0.160084
    14  C   -0.170125
    15  O   -0.620849
    16  H    0.408383
    17  H    0.401432
    18  H    0.194928
    19  H    0.170312
    20  H    0.182725
    21  H    0.183370
    22  H    0.363454
    23  H    0.144185
    24  H    0.150733
    25  H    0.137003
    26  H    0.140687
    27  H    0.421179
 Sum of Mulliken charges =   0.00000

 Dipole moment (field-independent basis, Debye):
    X=             10.1621    Y=             -7.7635    Z=              5.5755  Tot=             13.9509
 Quadrupole moment (field-independent basis, Debye-Ang):
   XX=           -131.0973   YY=            -73.6674   ZZ=            -82.0019
   XY=              6.7082   XZ=            -10.0042   YZ=              1.8902

  Exact polarizability:     211.277      13.535     202.456      23.618       0.114      93.798
 Approx polarizability:     238.292      13.722     260.792      28.163      -3.512     116.075

                      1                      2                      3
                      A                      A                      A
 Frequencies --     36.7835                48.2017                69.3373
 Red. masses --      6.1021                 5.9748                 5.0933
 Frc consts  --      0.0049                 0.0082                 0.0144
 IR Inten    --      9.0156                13.5872                 5.9778

                      4                      5                      6
                      A                      A                      A
 Frequencies --     85.6015               173.3996               179.6038
 Red. masses --      4.3055                 4.9028                 5.4523
 Frc consts  --      0.0186                 0.0869                 0.1036
 IR Inten    --     12.0370                36.0080                 1.2915

                      7                      8                      9
                      A                      A                      A
 Frequencies --    232.3008               247.5083               305.5693
 Red. masses --      4.0082                 3.2370                 1.2316
 Frc consts  --      0.1274                 0.1168                 0.0678
 IR Inten    --      5.3852                 2.0949                18.0117

                     10                     11                     12
                      A                      A                      A
 Frequencies --    339.7757               349.9154               407.5758
 Red. masses --      3.2143                 3.6675                 2.3488
 Frc consts  --      0.2186                 0.2646                 0.2299
 IR Inten    --     20.8061                49.5404                44.7144

                     13                     14                     15
                      A                      A                      A
 Frequencies --    433.6436               451.0263               469.0291
 Red. masses --      2.5768                 1.6114                 3.3739
 Frc consts  --      0.2855                 0.1931                 0.4373
 IR Inten    --     61.9967                78.9381                13.9209

                     16                     17                     18
                      A                      A                      A
 Frequencies --    528.6626               546.8715               586.2813
 Red. masses --      5.2411                 5.2133                 4.4743
 Frc consts  --      0.8630                 0.9186                 0.9061
 IR Inten    --     42.2885                 0.5322                 8.8489

                     19                     20                     21
                      A                      A                      A
 Frequencies --    596.4093               638.6077               688.8678
 Red. masses --      3.4314                 3.4415                 4.2264
 Frc consts  --      0.7191                 0.8269                 1.1817
 IR Inten    --      7.3017                 5.1426                15.0155

                     22                     23                     24
                      A                      A                      A
 Frequencies --    711.8329               759.5203               772.1992
 Red. masses --      6.1328                 1.2990                 4.6796
 Frc consts  --      1.8309                 0.4415                 1.6441
 IR Inten    --      3.4337                82.4525                 9.2450

                     25                     26                     27
                      A                      A                      A
 Frequencies --    780.1492               802.5587               820.6346
 Red. masses --      4.3593                 5.0689                 1.5694
 Frc consts  --      1.5632                 1.9236                 0.6227
 IR Inten    --      2.1000                17.9670                24.5579

                     28                     29                     30
                      A                      A                      A
 Frequencies --    854.2456               866.0710               887.2526
 Red. masses --      2.3675                 1.6054                 4.9539
 Frc consts  --      1.0179                 0.7095                 2.2977
 IR Inten    --      7.0801                 1.1612                32.5568

                     31                     32                     33
                      A                      A                      A
 Frequencies --    897.7878               934.1618               961.0214
 Red. masses --      3.9096                 1.3401                 1.6449
 Frc consts  --      1.8567                 0.6890                 0.8951
 IR Inten    --    139.6697                 2.5790                20.7938

                     34                     35                     36
                      A                      A                      A
 Frequencies --    975.0511              1040.0395              1043.0097
 Red. masses --      1.2284                 2.5055                 2.8389
 Frc consts  --      0.6881                 1.5968                 1.8196
 IR Inten    --      0.0161                16.2037                27.2953

                     37                     38                     39
                      A                      A                      A
 Frequencies --   1078.0286              1110.5069              1121.7064
 Red. masses --      2.5936                 1.5508                 1.5041
 Frc consts  --      1.7759                 1.1268                 1.1150
 IR Inten    --     19.1289                67.0607                53.9971

                     40                     41                     42
                      A                      A                      A
 Frequencies --   1138.0344              1161.1033              1184.2800
 Red. masses --      1.4377                 1.4768                 1.1457
 Frc consts  --      1.0970                 1.1730                 0.9467
 IR Inten    --     94.1101                 7.1719                 0.6151

                     43                     44                     45
                      A                      A                      A
 Frequencies --   1240.2256              1260.6012              1276.7223
 Red. masses --      1.5893                 2.2411                 1.4976
 Frc consts  --      1.4403                 2.0983                 1.4382
 IR Inten    --      7.8859                20.7415                13.8915

                     46                     47                     48
                      A                      A                      A
 Frequencies --   1295.2476              1329.5712              1343.0314
 Red. masses --      1.4007                 2.0453                 2.2220
 Frc consts  --      1.3845                 2.1303                 2.3614
 IR Inten    --      9.3968                55.5359               259.8647

                     49                     50                     51
                      A                      A                      A
 Frequencies --   1367.0286              1383.8142              1387.9833
 Red. masses --      2.4497                 2.4970                 3.9288
 Frc consts  --      2.6972                 2.8173                 4.4594
 IR Inten    --     63.1927               108.3501                19.0798

                     52                     53                     54
                      A                      A                      A
 Frequencies --   1404.3313              1428.2619              1462.9922
 Red. masses --      1.4323                 1.3870                 2.4996
 Frc consts  --      1.6642                 1.6670                 3.1521
 IR Inten    --     16.1288               544.1892                42.3196

                     55                     56                     57
                      A                      A                      A
 Frequencies --   1499.1910              1506.8729              1537.3993
 Red. masses --      2.3983                 1.1277                 2.8679
 Frc consts  --      3.1760                 1.5087                 3.9938
 IR Inten    --     45.7788                 4.4687                 7.1676

                     58                     59                     60
                      A                      A                      A
 Frequencies --   1595.7059              1627.8559              1653.5415
 Red. masses --      5.2135                 5.4445                 1.0759
 Frc consts  --      7.8214                 8.5004                 1.7332
 IR Inten    --     23.5735                 0.3446                26.6881

                     61                     62                     63
                      A                      A                      A
 Frequencies --   1673.3181              1683.6529              1760.1462
 Red. masses --      5.5391                 1.0714                 6.8871
 Frc consts  --      9.1379                 1.7895                12.5713
 IR Inten    --      8.8359                22.6788               454.0888

                     64                     65                     66
                      A                      A                      A
 Frequencies --   2938.1830              3052.7677              3104.7006
 Red. masses --      1.0687                 1.0646                 1.0988
 Frc consts  --      5.4358                 5.8453                 6.2406
 IR Inten    --    544.4052                37.6809                10.7587

                     67                     68                     69
                      A                      A                      A
 Frequencies --   3146.0669              3182.7265              3191.0344
 Red. masses --      1.0876                 1.0854                 1.0885
 Frc consts  --      6.3424                 6.4781                 6.5305
 IR Inten    --     16.6427                 2.7099                11.9366

                     70                     71                     72
                      A                      A                      A
 Frequencies --   3200.3871              3210.3285              3269.1353
 Red. masses --      1.0936                 1.0970                 1.0968
 Frc consts  --      6.5993                 6.6611                 6.9060
 IR Inten    --     56.6813                37.4623                 0.5754

                     73                     74                     75
                      A                      A                      A
 Frequencies --   3432.5523              3528.7742              3655.8569
 Red. masses --      1.0617                 1.0879                 1.0810
 Frc consts  --      7.3704                 7.9816                 8.5123
 IR Inten    --    140.5461               116.8642               144.9099

 - Thermochemistry -
 -------------------
 Temperature   298.150 Kelvin.  Pressure   1.00000 Atm.
 Atom     1 has atomic number  7 and mass  14.00307

 Molecular mass:   204.08988 amu.
 Principal axes and moments of inertia in atomic units:
                           1         2         3
     Eigenvalues --  1370.093695584.130346352.73497
           X            0.99995   0.00999  -0.00066
           Y           -0.00999   0.99995   0.00304
           Z            0.00069  -0.00304   1.00000
 This molecule is an asymmetric top.
 Rotational symmetry number  1.
 Warning -- assumption of classical behavior for rotation
           may cause significant error
 Rotational temperatures (Kelvin)      0.06322     0.01551     0.01363
 Rotational constants (GHZ):           1.31724     0.32319     0.28409
 Zero-point vibrational energy     579854.9 (Joules/Mol)
                                  138.58866 (Kcal/Mol)
 Warning -- explicit consideration of  19 degrees of freedom as
           vibrations may cause significant error
 Vibrational temperatures:     52.92    69.35    99.76   123.16   249.48
          (Kelvin)            258.41   334.23   356.11   439.65   488.86
                              503.45   586.41   623.92   648.93   674.83
                              760.63   786.83   843.53   858.10   918.81
                              991.13  1024.17  1092.78  1111.02  1122.46
                             1154.70  1180.71  1229.07  1246.08  1276.56
                             1291.72  1344.05  1382.70  1402.88  1496.38
                             1500.66  1551.04  1597.77  1613.89  1637.38
                             1670.57  1703.91  1784.41  1813.72  1836.92
                             1863.57  1912.96  1932.32  1966.85  1991.00
                             1997.00  2020.52  2054.95  2104.92  2157.00
                             2168.05  2211.97  2295.86  2342.12  2379.08
                             2407.53  2422.40  2532.46  4227.39  4392.25
                             4466.97  4526.49  4579.23  4591.19  4604.64
                             4618.95  4703.56  4938.68  5077.12  5259.96

 Zero-point correction=                           0.220855 (Hartree/Particle)
 Thermal correction to Energy=                    0.233593
 Thermal correction to Enthalpy=                  0.234537
 Thermal correction to Gibbs Free Energy=         0.180508
 Sum of electronic and zero-point Energies=           -686.153011
 Sum of electronic and thermal Energies=              -686.140273
 Sum of electronic and thermal Enthalpies=            -686.139329
 Sum of electronic and thermal Free Energies=         -686.193359

                     E (Thermal)             CV                S
                      KCal/Mol        Cal/Mol-Kelvin    Cal/Mol-Kelvin
 Total                  146.582             49.549            113.714
 Electronic               0.000              0.000              0.000
 Translational            0.889              2.981             41.844
 Rotational               0.889              2.981             32.252
 Vibrational            144.804             43.587             39.617
 Vibration     1          0.594              1.982              5.425
 Vibration     2          0.595              1.978              4.890
 Vibration     3          0.598              1.969              4.172
 Vibration     4          0.601              1.959              3.758
 Vibration     5          0.627              1.875              2.398
 Vibration     6          0.629              1.867              2.333
 Vibration     7          0.653              1.792              1.861
 Vibration     8          0.661              1.767              1.748
 Vibration     9          0.696              1.663              1.386
 Vibration    10          0.720              1.596              1.213
 Vibration    11          0.727              1.575              1.167
 Vibration    12          0.772              1.454              0.935
 Vibration    13          0.794              1.397              0.847
 Vibration    14          0.810              1.359              0.793
 Vibration    15          0.826              1.319              0.740
 Vibration    16          0.884              1.187              0.590
 Vibration    17          0.902              1.147              0.551
 Vibration    18          0.943              1.061              0.474
 Vibration    19          0.954              1.039              0.456

 Optimization completed.
    -- Stationary point found.
 Normal termination of Gaussian 16 at Thu Jun 23 13:43:43 2022.
