 ----------------------------------------
 # b3lyp/6-31g geom=connectivity opt freq
 ----------------------------------------

 -------------------
 Title Card Required
 -------------------
 Symbolic Z-matrix:
 Charge =  0 Multiplicity = 1

 SCF Done:  E(RB3LYP) =  -76.3856894710     A.U. after    8 cycles
 SCF Done:  E(RB3LYP) =  -76.3860926260     A.U. after    7 cycles
 SCF Done:  E(RB3LYP) =  -76.3861166701     A.U. after    6 cycles
 Optimization completed.
    -- Stationary point found.
 Normal termination of Gaussian DV at Thu Oct 21 14:43:31 2021.

 -----------------------------------------------------------------
 #N Geom=AllCheck Guess=TCheck SCRF=Check GenChk RB3LYP/6-31G Freq
 -----------------------------------------------------------------

 Structure from the checkpoint file:  "wat.chk"
 -------------------
 Title Card Required
 -------------------
 Charge =  0 Multiplicity = 1

                         Standard orientation:
 ---------------------------------------------------------------------
 Center     Atomic      Atomic             Coordinates (Angstroms)
 Number     Number       Type             X           Y           Z
 ---------------------------------------------------------------------
      1          8           0        0.000000    0.000000    0.114322
      2          1           0       -0.000000    0.790917   -0.457290
      3          1           0       -0.000000   -0.790917   -0.457290
 ---------------------------------------------------------------------

 SCF Done:  E(RB3LYP) =  -76.3861166701     A.U. after    1 cycles

 The electronic state is 1-A1.
 Alpha  occ. eigenvalues --      -19.13356      -1.00642      -0.52949      -0.34861      -0.28961
 Alpha virt. eigenvalues --        0.05282       0.14242       0.82196       0.85115       0.89052
 Alpha virt. eigenvalues --        0.94466       1.07117       1.40875

 Mulliken charges:
               1
     1  O   -0.717655
     2  H    0.358827
     3  H    0.358827
 Sum of Mulliken charges =  -0.00000

 Dipole moment (field-independent basis, Debye):
    X=             -0.0000    Y=              0.0000    Z=             -2.3989  Tot=              2.3989
 Quadrupole moment (field-independent basis, Debye-Ang):
   XX=             -7.2016   YY=             -4.1160   ZZ=             -6.2441
   XY=              0.0000   XZ=              0.0000   YZ=             -0.0000

  Exact polarizability:       1.450       0.000       7.496       0.000      -0.000       4.707
 Approx polarizability:       1.389       0.000       8.685       0.000       0.000       5.529

                      1                      2                      3
                     A1                     A1                     B2
 Frequencies --   1619.2966              3616.1106              3780.9665
 Red. masses --      1.0918                 1.0368                 1.0856
 Frc consts  --      1.6867                 7.9881                 9.1437
 IR Inten    --     68.3504                 4.4101                 8.8045

 - Thermochemistry -
 -------------------
 Temperature   298.150 Kelvin.  Pressure      1.00000 Atm.
 Atom     1 has atomic number  8 and mass  15.99491

 Molecular mass:    18.01056 amu.
 Principal axes and moments of inertia in atomic units:
                                 1                 2                 3
     Eigenvalues --            2.088673          4.502712          6.591384
           X                   0.000000          0.000000          1.000000
           Y                   1.000000         -0.000000         -0.000000
           Z                   0.000000          1.000000         -0.000000
 This molecule is an asymmetric top.
 Rotational symmetry number  2.
 Rotational temperatures (Kelvin)     41.46840    19.23595    13.14047
 Rotational constants (GHZ):         864.06129   400.81207   273.80306
 Zero-point vibrational energy      53929.9 (Joules/Mol)
                                   12.88955 (Kcal/Mol)
 Vibrational temperatures:   2329.81  5202.78  5439.97
          (Kelvin)

 Zero-point correction=                           0.020541 (Hartree/Particle)
 Thermal correction to Energy=                    0.023376
 Thermal correction to Enthalpy=                  0.024321
 Thermal correction to Gibbs Free Energy=         0.002872
 Sum of electronic and zero-point Energies=            -76.365576
 Sum of electronic and thermal Energies=               -76.362740
 Sum of electronic and thermal Enthalpies=             -76.361796
 Sum of electronic and thermal Free Energies=          -76.383244

                     E (Thermal)             CV                S
                      KCal/Mol        Cal/Mol-Kelvin    Cal/Mol-Kelvin
 Total                   14.669              6.011             45.141
 Electronic               0.000              0.000              0.000
 Translational            0.889              2.981             34.608
 Rotational               0.889              2.981             10.526
 Vibrational             12.891              0.049              0.007

 Optimization completed.
    -- Stationary point found.
 Normal termination of Gaussian DV at Thu Oct 21 14:43:32 2021.
